27
Lattice="50.0 0.0 0.0 0.0 50.0 0.0 0.0 0.0 50.0" Properties=species:S:1:pos:R:3:forces:R:3 energy=-17659.831875761836 dihedrals="_JSON [71.41, 200.45, 60.97]" pbc="F F F"
C        1.31916779       1.71347758      -2.38029719      -0.90482628       2.51315446       0.35688531
C        0.43899184       1.50296913      -1.33846269      -0.46809749      -0.04631336      -0.14558518
C        1.78499670       3.07564836      -2.44700665       1.58427168      -0.20546904       0.26121435
H        1.44264932       0.99067399      -3.16551617       0.32549590      -0.28479911      -0.21176950
C        0.29232898       2.51270701      -0.35931475      -1.91585777      -1.38238571       2.44763711
O       -0.30414634       0.36132996      -1.15772089       0.94468238      -0.43740817      -0.38404750
N       -0.46725138       2.15264326       0.84920129       2.03885900       2.41850700      -0.43282138
N        0.75275879       3.73224150      -0.35947533       1.06341580       0.45372371      -0.97811980
H       -0.18162831       1.21889634       1.11986939       0.03292385      -0.08137863       0.24086411
H       -0.06472665       2.88886220       1.52496435      -1.22579663      -1.76608200      -0.87198988
C        1.52446399       4.01244184      -1.43113961      -0.25027724      -1.57270531      -0.78548145
H        2.00867367       4.96869945      -1.48074176      -0.01387365       0.59623693       0.05270641
H        2.58297061       3.39123176      -3.15697499      -0.88860832      -0.45296559       0.14818320
C       -1.72835730       0.47399094      -1.37289164       0.70949843       1.60139774      -0.00353918
C       -2.32342772      -0.69049541      -0.64230182      -1.06724387      -2.52135582       1.61386137
H       -1.97343786       0.36971968      -2.46645911       0.28644461       0.31424585       0.79222356
H       -1.93648614       1.55865948      -1.00403896      -0.69126468      -2.06454718      -0.48853315
C       -2.94116592      -1.75382711      -1.34824545      -1.09485735      -0.78913198       0.69010108
C       -2.19640052      -0.90045009       0.78421215      -2.00014498      -1.60223893      -2.37298288
C       -3.60411021      -2.88783234      -0.73556911       1.56951841       0.83609118       1.42298411
H       -2.96034420      -1.73459175      -2.42012007      -0.04783366       0.29395870      -0.70334771
C       -3.47997507      -2.99903918       0.68644146       0.16887448       1.15596594      -2.05725633
H       -4.09962073      -3.75046103      -1.27164942       0.67551646       1.40059853       0.21905064
C       -2.79786731      -2.00070169       1.44287542      -0.32084582      -0.36728090      -1.70036974
H       -3.93253603      -3.88846936       1.09396980      -0.04326093      -0.05138314       0.76468792
H       -2.81349797      -2.15850426       2.51056778       0.46675274       0.38565012       0.32931066
H       -1.69067301      -0.14127816       1.25496093       1.06653494       1.65591471       1.79613386
27
Lattice="50.0 0.0 0.0 0.0 50.0 0.0 0.0 0.0 50.0" Properties=species:S:1:pos:R:3:forces:R:3 energy=-17658.833064979597 dihedrals="_JSON [50.59, 223.13, 72.4]" pbc="F F F"
C        1.12387894       1.82752155      -2.59515233      -1.72425811      -0.36230901       0.86350173
C        0.33872490       1.50836798      -1.47262493       1.94033649       1.76992080      -0.23668052
C        1.64100356       3.10031794      -2.57092754       1.31585845       0.62748534      -1.77748735
H        1.10778919       1.17800386      -3.50374242       0.18044923       0.52540241       0.99058101
C        0.44292119       2.41584097      -0.32091902      -3.16595622      -2.57477964       1.87505651
O       -0.40240802       0.41243569      -1.60976188      -1.65439667      -1.52756999       0.83536270
N       -0.13614059       2.00588354       1.03232082       0.91047030      -1.84382966      -4.11272091
N        0.88110357       3.62267411      -0.42604672       0.25746178       0.79092877       0.88863282
H       -1.00616610       1.51214435       0.85453077       0.26986656      -0.36071612       0.10695702
H       -0.40471205       2.72047507       1.63563331       0.11757635       2.31238584       0.84529102
C        1.44283485       3.99372740      -1.56707082       1.07601659       0.43933441       1.02401838
H        1.93555518       4.96897977      -1.50580881      -0.34544782      -0.05257038      -0.59435915
H        2.22933768       3.42758597      -3.39990507       0.36305983       0.26700337      -0.72128417
C       -1.78240527       0.57316428      -1.27945457      -1.07239247      -2.36811032       1.32631780
C       -2.36492658      -0.63689367      -0.42252272      -0.15843918      -0.16679413      -0.90116741
H       -2.47916279       0.48979193      -2.11708684       0.74983741       0.49347549      -0.80858722
H       -1.92114793       1.53060124      -0.83514747      -0.29490168       0.89465092       0.53684007
C       -3.16660385      -1.52913150      -1.14828994      -0.96060005      -1.97223635      -0.10594483
C       -2.16100271      -1.01230944       0.92447311      -0.27463932       0.62392572      -0.71721838
C       -3.53849989      -2.78091493      -0.56988526       0.01712823      -0.06038654      -0.31235397
H       -3.61300049      -1.42109388      -2.15290030       0.99871062       0.63881267       0.18180555
C       -3.30457900      -3.04336994       0.74643389       0.92495131      -0.99304732       0.78991818
H       -3.90113825      -3.72353410      -1.02424247      -0.28825997       1.34132393      -0.97294163
C       -2.62816121      -2.15421486       1.54111286       0.58826042       1.38909910       0.32724632
H       -3.41908324      -4.04886038       1.08284935      -0.66065134      -0.70837710       0.47221516
H       -2.35036381      -2.21618191       2.60831160      -0.51280798      -0.64175108      -0.58481101
H       -1.69664550      -0.37521079       1.60345029       1.40276724       1.51872885       0.78181227
27
Lattice="50.0 0.0 0.0 0.0 50.0 0.0 0.0 0.0 50.0" Properties=species:S:1:pos:R:3:forces:R:3 energy=-17659.005974031847 dihedrals="_JSON [51.55, 210.26, 84.03]" pbc="F F F"
C        0.80871483       2.12088208      -2.69392077       1.98169605      -0.00928327      -0.11108834
C        0.09656654       1.65208592      -1.56191090      -0.85554647      -0.31536335      -0.26929754
C        1.73959911       3.17802405      -2.61815414      -2.64927931       0.10588128       2.25067444
H        0.88975658       1.56281846      -3.60596895      -0.66188787      -0.58898792      -0.43862544
C        0.32517085       2.37171957      -0.41315037       0.55420238       2.98724149       0.60164989
O       -0.73600924       0.50942518      -1.57173410       1.21657911       1.00436872      -0.73147338
N       -0.24387293       1.94720578       0.82613844       2.08738379      -0.86254772      -0.73567803
N        1.04810698       3.62093651      -0.32738144      -2.67583428      -3.94870750      -0.34033422
H       -0.26124685       2.82918174       1.30805571       0.20705990       0.11743958       1.23550179
H        0.57622694       1.35303875       1.13397716      -1.51160732       0.79172537       0.73066633
C        1.63876049       3.97539587      -1.43506576       0.62270341      -0.99548589      -0.65830625
H        2.09806998       4.91044982      -1.28429296       1.08245086       1.29819750      -0.59205388
H        2.37579467       3.48968142      -3.40648774       0.35816994       0.10168012      -0.91045774
C       -2.08731140       0.60165770      -1.00150993       1.30603029       1.21108557       0.27358395
C       -2.44417637      -0.75546403      -0.45794928       0.73902159      -0.19596426      -1.12260861
H       -2.77052912       0.98349205      -1.81673138       0.50696859      -0.29242720       1.02400114
H       -1.91322470       1.27666899      -0.10463839      -1.20792388      -0.42756291      -1.32486568
C       -3.06039133      -1.74006536      -1.26138958      -1.38173536      -0.73145150       4.37002628
C       -1.97685099      -1.02792470       0.83824461       1.43102629       0.45191159       1.10343022
C       -3.57868901      -2.81498171      -0.43445549       0.45195189      -0.18816139      -2.49170224
H       -3.32350772      -1.61338349      -2.28643296      -0.30232311       0.23714846      -0.63597299
C       -3.03879717      -3.12982810       0.81539579      -1.30150594      -0.68395386      -0.29561230
H       -4.36018200      -3.51223398      -0.84690636       1.07697450       0.56363714       0.20160961
C       -2.21444931      -2.26455270       1.49850190       1.23132254       1.66791061      -0.16321025
H       -3.36756051      -4.09914021       1.18928528       0.13524913       0.18482144       0.49786595
H       -1.71587818      -2.47572691       2.48105296      -0.69007461       0.05856803      -1.02466055
H       -1.24077696      -0.22818123       1.26272925      -1.75107212      -1.54172013      -0.44306215
27
Lattice="50.0 0.0 0.0 0.0 50.0 0.0 0.0 0.0 50.0" Properties=species:S:1:pos:R:3:forces:R:3 energy=-17659.221445610852 dihedrals="_JSON [64.95, 221.42, 61.02]" pbc="F F F"
C        0.56280864       2.16335131      -2.73206581      -1.27280673      -0.37636279       1.50470675
C       -0.08632494       1.85651919      -1.47543497       1.27423513      -1.34634755      -4.74433117
C        1.54797653       3.14656972      -2.76096975      -0.20629592       1.19677118       1.60088561
H        0.19290242       1.64701462      -3.64809822       0.67941898       0.15755873       0.81666354
C        0.37213102       2.56398212      -0.38795726      -2.25599269      -1.82534727       1.18836137
O       -0.78538220       0.64946097      -1.53011759      -1.06687060      -0.09540691       1.39833562
N       -0.28067917       2.24479937       0.78252299       0.82794123       2.79860016       3.53442204
N        1.19277519       3.54838069      -0.42021620       2.09804387       3.36489808      -0.87289468
H        0.08569127       2.58788172       1.71405865      -0.16279283       0.17549503      -2.03034812
H       -0.50796163       1.32924835       0.96047833      -0.67006724      -2.83539395      -0.35701570
C        1.75682197       3.95660871      -1.58470095      -0.52720681      -2.13948019      -0.75902496
H        2.37917366       4.88164591      -1.60254425      -0.34601106      -0.96507862       0.24072221
H        2.14766693       3.24630191      -3.63814860       0.20510244       0.60029712      -0.70919538
C       -2.17964281       0.48697599      -0.98079139       0.57125297       4.36346696      -1.82153955
C       -2.44898796      -0.76121087      -0.24693079       0.55571294       0.15463721      -1.35547021
H       -2.85173616       0.62142441      -1.87640547       0.61448421      -0.90261679       0.54515160
H       -2.41261137       1.48483828      -0.52118877       0.30613291      -1.08006927       0.76377706
C       -3.21093263      -1.65927898      -0.95371085      -0.78971180      -0.67906543      -1.63491002
C       -1.83200567      -1.18203125       0.87736125       0.89103795      -0.14604584       2.02995542
C       -3.45112998      -2.93118261      -0.50580385       1.44165578      -1.70617494       2.59463870
H       -3.45406131      -1.33226334      -1.97695361      -0.60643497      -0.45053989       0.49169736
C       -2.79045147      -3.36469750       0.74277308      -0.81154830       2.34881035      -1.86570532
H       -4.03718447      -3.67179349      -1.04410085       0.01231049       0.18652650      -0.15788947
C       -1.99847612      -2.45935406       1.43972868      -0.34687635       0.22493516       0.71508564
H       -2.89678029      -4.32474016       1.15411042      -0.50024764      -1.45842319       0.24247311
H       -1.61122599      -2.65751565       2.49738011      -0.26182047       0.01595329      -1.83338928
H       -1.16296138      -0.50632649       1.37149680       0.34735452       0.41840287       0.47483784
27
Lattice="50.0 0.0 0.0 0.0 50.0 0.0 0.0 0.0 50.0" Properties=species:S:1:pos:R:3:forces:R:3 energy=-17659.066518774474 dihedrals="_JSON [78.8, 206.89, 59.86]" pbc="F F F"
C        0.18439347       2.18169696      -2.83864898       2.72529175       4.35502156       2.73935323
C       -0.08798620       1.81620349      -1.52611372      -0.55741061      -0.74438804      -1.50772295
C        1.06955036       3.39250725      -2.97219946      -1.66565382      -2.89346874       0.20065772
H       -0.01587500       1.73056260      -3.74398893      -1.25586918      -1.61782494      -1.48788453
C        0.46427074       2.57186926      -0.39992457      -2.78949943      -3.97728012       0.33768948
O       -0.72641382       0.59472837      -1.37684963       1.22814311      -1.01174940       0.91285291
N       -0.01326296       2.20385973       0.89978818      -0.10075607      -2.03714882      -1.55483342
N        1.37588039       3.43924414      -0.51897902       1.96048332       2.04067952      -1.75715328
H        0.50464120       2.77451404       1.51592109       0.72438346       0.40187253       1.39542251
H        0.08907957       1.15184639       1.10311901      -0.00913019       2.38616388      -0.50977159
C        1.68943992       3.77720521      -1.81905215       0.45714694       2.52859860      -0.70280612
H        2.40948889       4.59888646      -2.04485025      -0.18543038      -0.54341273       1.23292386
H        1.25286857       3.86842329      -3.96825705       0.10737904      -0.61230306       1.06141007
C       -2.09007718       0.48739582      -0.92565125      -0.13755496       3.15676119      -0.55669307
C       -2.49479928      -0.77455839      -0.22256058       0.68235758       0.48413152      -2.87510075
H       -2.62661229       0.55466972      -1.87527413      -0.72672164       0.30583167       0.18078258
H       -2.18807422       1.44774015      -0.33380488      -0.82932858      -1.13515272      -0.25174272
C       -3.27189388      -1.72625488      -0.99046219       0.91738349       0.17049043       1.80264173
C       -1.80816874      -1.05893081       0.91667180      -2.04655909      -2.79414469       0.27115868
C       -3.26504182      -2.99605293      -0.39189940      -1.34922371      -0.60968244      -1.05663752
H       -3.79781992      -1.41676561      -1.96553450       1.02180067      -0.80138097       1.64142114
C       -2.72334926      -3.31738222       0.90522652      -1.49550543       0.24558398      -3.20308547
H       -3.76546468      -3.79481843      -0.98048133       0.25085012       0.29796598       0.61988374
C       -2.05247249      -2.32492041       1.52078841       1.81041913       1.19207912       1.72814291
H       -2.89824801      -4.32973594       1.25232147       0.26815318       0.11716764       0.40290005
H       -1.61378647      -2.53255594       2.49753574       0.07361407       0.10530234      -0.00124185
H       -1.19350256      -0.32529745       1.33269100       0.92123723       0.99028671       0.93743268
27
Lattice="50.0 0.0 0.0 0.0 50.0 0.0 0.0 0.0 50.0" Properties=species:S:1:pos:R:3:forces:R:3 energy=-17659.41108648836 dihedrals="_JSON [85.66, 202.73, 77.86]" pbc="F F F"
C        0.10095228       2.25586256      -2.78565005       1.27416536       1.09022953       1.20755976
C       -0.03312787       1.75253331      -1.50248739       0.52140852      -0.36789512       0.92918310
C        0.93515800       3.36363462      -3.04072180      -0.27529905       0.49552677       1.49699771
H       -0.46752976       1.74050366      -3.47451762      -0.90018139      -1.15050953      -2.02721987
C        0.51970014       2.41891171      -0.35469188      -0.77808659       0.94487622      -1.23600368
O       -0.61090992       0.50824939      -1.34437754      -1.03682286       0.31271583       1.07873977
N        0.13764014       2.08469990       0.93863966       0.41426763      -0.25463835       0.31707939
N        1.21358634       3.55722276      -0.55492671      -0.71174828      -1.65604226      -0.27624484
H        0.74397595       2.40956818       1.67702422       0.24239559       0.72719995      -0.21267296
H       -0.02530907       1.11627687       1.14733170      -0.24161324      -0.60290427      -0.66390594
C        1.40145728       3.90608135      -1.84097763       2.21573996       1.90548334       0.36287889
H        2.13804016       4.75236243      -1.82953009      -0.83893421      -0.46650097      -0.70655450
H        1.20158914       3.91492584      -3.97291285      -0.57097711      -1.00528912       0.59805159
C       -2.04879429       0.58159662      -0.93556219       2.07063268      -0.82196603       1.35512301
C       -2.40242221      -0.72782657      -0.26168248      -0.39041051      -0.48397664      -0.52971356
H       -2.46777869       0.76926296      -1.89517636      -1.57822837       0.27179813      -0.38526695
H       -2.19285576       1.32978754      -0.14669360       0.08418005       0.66984076      -0.64742482
C       -3.02943849      -1.73846306      -0.98905954      -1.78035430       1.71659577      -3.49483997
C       -2.04854750      -1.03366862       1.03637847       0.07499504      -0.73073207      -1.05785724
C       -3.27277888      -2.98273620      -0.51428801       2.19105251      -1.52103073       3.15380578
H       -3.45916061      -1.40533910      -2.03891132       1.07585855      -0.97585781       1.97838083
C       -2.63369973      -3.30625017       0.80482365      -1.21569370       0.89694350      -3.73311615
H       -3.62060316      -3.80325826      -1.14262988      -0.34271220       0.26239753       0.20242310
C       -2.01870112      -2.32537054       1.55206548      -0.65369006      -1.52944456      -0.91208855
H       -2.50480678      -4.34753669       0.95625970      -0.08438852      -0.97858212       0.84600342
H       -1.42530535      -2.70344316       2.37944786      -0.17653525       0.80677926       0.50162284
H       -1.72141035      -0.27152219       1.62286766       1.41097975       2.44498300       1.85505984
27
Lattice="50.0 0.0 0.0 0.0 50.0 0.0 0.0 0.0 50.0" Properties=species:S:1:pos:R:3:forces:R:3 energy=-17658.891922434763 dihedrals="_JSON [67.46, 198.09, 80.69]" pbc="F F F"
C        0.32968412       2.19179875      -2.90164576      -1.64407430      -1.94031997       4.77138183
C       -0.04772289       1.71469368      -1.54362919       1.10037156       1.97225282      -2.72795821
C        0.84103746       3.41520996      -3.01071811       1.86232441       1.88748166       0.37719580
H        0.15589248       1.55069818      -3.68355773      -0.57938125      -1.48195798      -2.11049767
C        0.39811510       2.42649351      -0.46771935       1.51498538       3.03492133      -0.37898745
O       -0.72352869       0.60393275      -1.28994951      -2.11765132      -1.82860744       0.35005307
N        0.10170452       2.06668329       0.80345199      -0.39889214      -0.99805343       1.34756614
N        1.07237634       3.62968150      -0.59383436      -1.11649953       0.15776089      -1.11111095
H        0.20629149       2.77461603       1.52829695       0.40722543      -0.58941841      -0.31384889
H        0.16986687       1.06826416       1.02062267      -0.02493362       0.79162388       0.18359544
C        1.16696220       4.13203013      -1.82965781      -0.55535123      -0.50168938       0.04183428
H        1.41872910       5.18101823      -2.01497176       0.60285144      -0.16236980       0.75851570
H        1.23499829       3.80543316      -3.94478149      -0.43684192       0.10821390      -0.19266552
C       -2.07428311       0.64060004      -0.65052804      -0.26967875       0.27640057      -0.30964056
C       -2.24396760      -0.77687619      -0.14593292       0.49250821      -1.02556831       0.20583355
H       -2.87645053       0.71047382      -1.46946287       1.23632724       0.74032765       1.00925941
H       -2.22523627       1.45801866       0.20201766       0.68703340      -1.64149399      -2.08882871
C       -2.90158386      -1.70951146      -1.01110729       2.02076072       0.29625466      -0.26042966
C       -1.65265114      -1.20778379       1.06549508      -3.95043963      -3.05187794      -0.45932211
C       -3.06261022      -3.05318174      -0.57181029      -1.47363928       2.65822307      -2.92384640
H       -2.89770207      -1.32797413      -2.08631727      -0.99250882      -0.92603356       1.34824810
C       -2.74268477      -3.32979957       0.71681879      -0.54636105      -1.36034707       1.37124731
H       -3.68762810      -3.73707564      -1.20419294       1.01418235       0.36289822       0.67073853
C       -2.10744041      -2.50560049       1.61188070       2.44566136       2.68364568      -0.19123133
H       -3.14485113      -4.26260098       1.01301745       0.00898092      -1.19694677       0.92374617
H       -1.83054242      -2.80384828       2.67861374      -0.51379343       0.33306095      -1.69128354
H       -1.23609455      -0.49493374       1.68686880       1.22683384       1.40161877       1.40043567
27
Lattice="50.0 0.0 0.0 0.0 50.0 0.0 0.0 0.0 50.0" Properties=species:S:1:pos:R:3:forces:R:3 energy=-17659.34911289751 dihedrals="_JSON [67.51, 189.85, 87.31]" pbc="F F F"
C       -0.03169793       2.30540225      -2.76121703      -0.25566962      -1.03351550      -0.73701926
C       -0.14501827       1.79286556      -1.50167361       0.04075000       1.11365680       2.84503410
C        0.63672404       3.49925569      -2.94031952       1.65698694       2.60854080       0.64424580
H       -0.40397170       1.63028552      -3.55739845       0.34493007       0.78760477       0.11190181
C        0.36439858       2.65349355      -0.41004089      -0.10877102       0.16244124      -2.37869792
O       -0.67320728       0.51166999      -1.26611651       1.06249914       0.85155894      -0.29639172
N        0.50243741       2.18063257       0.83776558       0.56945693      -2.08990970       2.95627816
N        0.83461707       3.96256983      -0.55708983      -0.20582501      -3.03856777      -0.15880533
H        1.24246380       2.66039128       1.33060559      -0.22976556       0.46561373       0.14688033
H        0.57656081       1.16231233       1.11076680      -0.60986102       1.56511346      -1.40305273
C        1.08642895       4.29961933      -1.81572617      -1.41732601      -1.52675196      -1.45045623
H        1.65960526       5.22079760      -1.92510612      -0.28764323       0.02448714      -0.37951801
H        0.93199364       3.90100263      -3.91046648      -0.37974191      -0.32986970      -0.08337486
C       -1.88547213       0.44833116      -0.55976980      -1.26750378       1.97398227       1.22333442
C       -2.24892532      -0.93304911      -0.15512655       0.46298568       0.21199297       0.36574798
H       -2.71344129       0.94869814      -1.04182957      -0.38880326      -0.14085623      -1.54743617
H       -1.91765747       1.12549850       0.32203167       0.97952662      -0.53425408       0.25121237
C       -3.03979722      -1.74935837      -0.99628441       1.62335012       1.04201659       0.40713576
C       -1.71721185      -1.35395415       1.07338064       1.59995942      -2.19821471       0.04481239
C       -3.20543906      -3.07087011      -0.63064233      -2.23590755      -0.63360808      -1.24689037
H       -3.27485799      -1.30245838      -1.96925647      -0.58422013      -0.39762887       0.32059708
C       -2.57189486      -3.51255770       0.50233659       1.15723244      -2.91204939       1.21370490
H       -3.98405895      -3.70759881      -1.16490501       1.46606634       0.60604851       0.52150456
C       -1.73981610      -2.75985902       1.31777226      -2.06347626       1.21939384       0.69151251
H       -2.53670049      -4.59490635       0.84185825      -0.86852182       1.11175919      -0.91789144
H       -1.56452021      -3.30906809       2.26659651       0.95105962       1.01142313      -0.49143687
H       -1.01836529      -0.75948286       1.71094592      -1.01176715       0.07959260      -0.65293126
27
Lattice="50.0 0.0 0.0 0.0 50.0 0.0 0.0 0.0 50.0" Properties=species:S:1:pos:R:3:forces:R:3 energy=-17659.738588464 dihedrals="_JSON [72.59, 186.36, 79.96]" pbc="F F F"
C       -0.20998487       2.33853220      -2.78589877      -1.90926771      -1.92895523       1.20857169
C       -0.04306004       1.83458816      -1.46939761      -1.42584885      -1.64605255      -0.56217296
C        0.21589574       3.63558048      -3.01660634       1.55043053      -0.08652278      -0.38929950
H       -0.90032536       1.64868762      -3.43720526       1.67287327       1.71642775       0.84759232
C        0.62535681       2.59491249      -0.49802815      -0.26220874       0.49088329       0.47196372
O       -0.65065511       0.52816322      -1.15463162       2.16658637       2.17598037      -0.53155973
N        0.57973326       2.18203145       0.83467790       0.59507549       3.11856256       0.03252624
N        1.17434050       3.80016898      -0.77119484      -0.30087529      -1.12442751       0.07019263
H        1.22382928       2.64566912       1.49809662      -0.50614682      -0.18778228      -0.97942872
H        0.64476193       1.23264255       0.87978399       0.11187743      -3.43787802       0.47856295
C        1.00984999       4.25369275      -2.00092579      -1.46949152       0.37212321      -0.95705382
H        1.36204862       5.27019012      -2.14667868       0.29051029       0.02021921      -0.28134498
H        0.13313985       4.05133779      -4.03069727      -0.02432492       0.18322001       0.58884404
C       -1.83402641       0.55521327      -0.37680486      -1.81473146       1.51245491      -1.53804766
C       -2.16384857      -0.88374206      -0.06037284       0.14020738       1.74374545      -1.06468704
H       -2.71807478       0.89136802      -1.09241340       1.52088299      -0.04294378       1.52914175
H       -1.69901972       1.31155498       0.47567258      -0.52452561      -1.40073382      -0.81402092
C       -2.96732979      -1.65313065      -0.85252754      -3.59855903      -0.22453848      -2.60604114
C       -1.54634939      -1.53607257       0.90936337       2.75182345      -2.06905689       5.06301537
C       -3.34692176      -2.97941231      -0.55603271       0.99977407       0.01274214       0.40974088
H       -3.51002611      -1.11410699      -1.70916839       0.94212252      -0.96624139       1.01278715
C       -2.78744600      -3.55689044       0.61979039       0.01876795       0.96357224      -1.72558444
H       -3.95095283      -3.62734376      -1.24200509       0.36021556       0.98739897       0.68029950
C       -1.83894495      -2.85175326       1.33242048      -0.22279455       0.61056486      -0.44709816
H       -3.00450785      -4.56633389       0.81673322      -0.39081680      -1.33205585       0.58329374
H       -1.33011009      -3.25996813       2.21258823      -0.16908754       0.03164290      -0.34145919
H       -0.77024454      -1.10799032       1.58054527      -0.50246846       0.50765072      -0.73873374
27
Lattice="50.0 0.0 0.0 0.0 50.0 0.0 0.0 0.0 50.0" Properties=species:S:1:pos:R:3:forces:R:3 energy=-17659.67961161504 dihedrals="_JSON [91.47, 175.93, 88.17]" pbc="F F F"
C       -0.42205331       2.48971535      -2.72409820       0.84170784      -1.04571353      -1.42896295
C       -0.19243820       1.98376120      -1.47584747      -0.77419718      -2.80122644       1.26161117
C        0.33921690       3.59466556      -3.08772090      -1.55867938       0.96525808      -1.69367690
H       -0.92115674       1.88283454      -3.52546229       0.11631474       0.63764815       1.11313165
C        0.61840190       2.62087680      -0.54666404       0.39966062       2.28574124      -0.25096456
O       -0.58007000       0.66516497      -1.10946998       0.43735442       0.68847931      -1.32027812
N        0.61462800       2.21934382       0.77554040       0.80629900      -0.81111952       1.09524692
N        1.26395315       3.77018231      -0.88637624      -0.54430121      -1.23233552       1.46088849
H        1.41040264       2.44184121       1.36473957       0.11587562       1.04134238      -0.56152354
H        0.52489061       1.22808288       0.94253068      -0.60683720      -0.35168886      -0.70890631
C        1.09035288       4.23756779      -2.10563708       0.11050506      -0.68829449      -1.10672860
H        1.68093268       5.09095777      -2.35201885       0.33413394       0.79625226      -0.20407344
H        0.15143263       3.94477308      -4.15948096       0.82358170       0.00165432       1.70982432
C       -1.78356028       0.48999560      -0.39726955       0.41330438      -0.10488598       0.40631154
C       -2.08163451      -0.97890373      -0.18239321      -0.13677373      -0.02667610       1.17618822
H       -2.59131289       1.04877033      -0.82743554      -0.76310061       0.21826810      -0.70403538
H       -1.61900961       0.91776500       0.58846991      -0.26799603       0.19948442       0.45174162
C       -3.07428406      -1.76266945      -0.80730348      -0.19203737       0.87021342       0.37460973
C       -1.51935696      -1.52595872       0.97505191      -0.01420624      -1.96360603       0.66409836
C       -3.44576599      -2.99511282      -0.34008845      -1.19355718      -1.06592458      -1.00618158
H       -3.72204508      -1.40613383      -1.57586297      -0.02510792       0.84265274      -0.78941718
C       -2.78563507      -3.65897565       0.68210391       0.65637913       3.38076707      -1.01312809
H       -4.33233433      -3.50708621      -0.79976577       1.00573224       0.45876732       0.11649337
C       -1.87170649      -2.88405115       1.35769824       2.25472253       1.25961307       2.29676305
H       -2.93816922      -4.66484208       0.66389170      -0.42091146      -3.01063344       1.34352024
H       -1.37469238      -3.21717460       2.33646550      -0.64204269       0.04371677      -1.66300360